#!/bin/bash
#==============================================================#
# File      :   drop-pub
# Desc      :   Drop publication on src cluster
# Time      :   {{ '%Y-%m-%d %H:%M' |strftime }}
# Path      :   {{ dir_path }}/drop-pub
# Deps      :   bash
# License   :   AGPLv3 @ https://pigsty.io/docs/about/license
# Copyright :   2018-2025  Ruohang Feng / Vonng (rh@vonng.com)
#==============================================================#


#--------------------------------------------------------------#
# Utils
#--------------------------------------------------------------#
__CN='\033[0m';__CB='\033[0;30m';__CR='\033[0;31m';__CG='\033[0;32m';
__CY='\033[0;33m';__CB='\033[0;34m';__CM='\033[0;35m';__CC='\033[0;36m';__CW='\033[0;37m';
function log_info() {  printf "[${__CG} OK ${__CN}] ${__CG}$*${__CN}\n";   }
function log_warn() {  printf "[${__CY}WARN${__CN}] ${__CY}$*${__CN}\n";   }
function log_error() { printf "[${__CR}FAIL${__CN}] ${__CR}$*${__CN}\n";   }
function log_debug() { printf "[${__CB}HINT${__CN}] ${__CB}$*${__CN}\n"; }
function log_input() { printf "[${__CM} IN ${__CN}] ${__CM}$*\n=> ${__CN}"; }
function log_hint()  { printf "${__CB}$*${__CN}\n"; }
function log_line()  { printf "${__CM}[$*] ===========================================${__CN}\n"; }


#--------------------------------------------------------------#
# Param
#--------------------------------------------------------------#
# check if MIGRATION_CONTEXT is defined as expected
EXPECTED_CONTEXT="{{ src_cls }}.{{ src_db }}"
if [[ "${MIGRATION_CONTEXT}" != "${EXPECTED_CONTEXT}" ]]; then
    log_error "MIGRATION_CONTEXT = ${MIGRATION_CONTEXT} != EXPECTED ${EXPECTED_CONTEXT}"
    log_hint "did you run . activate first?"
    exit 1
fi
SQLFILE="data/drop-pub.sql"


#--------------------------------------------------------------#
# Planning
#--------------------------------------------------------------#
log_info "generate drop publication sql on ${SQLFILE}"
# templating
cat > ${SQLFILE} <<-EOF
DROP PUBLICATION "${PUBNAME}";
EOF

# print sql
cat ${SQLFILE}


#--------------------------------------------------------------#
# Asking
#--------------------------------------------------------------#
log_input "drop publication on src ? (yes/no) >"
read -r
case ${REPLY} in
    [yY][eE][sS]|[yY])
        log_info   "drop publication on src: ${SRCCLS}.${SRCDB}"
        log_info   "  - SRC URL  : ${SRCPG}"
        log_info   "  - SQL FILE : ${SQLFILE}"
        log_debug  "$ psql '${SRCPG}' -Xwf ${SQLFILE}"
        psql "${SRCPG}" -Xwf ${SQLFILE}
        exit 0
        ;;
    *)
        log_info  "you can exam it and drop pub later with:"
        log_debug  "$ psql '${SRCPG}' -Xwf ${SQLFILE}"
        exit 1
        ;;
esac